/*--------------------------------*- C++ -*----------------------------------*\
  =========                 |
  \\      /  F ield         | OpenFOAM: The Open Source CFD Toolbox
   \\    /   O peration     | Website:  https://openfoam.org
    \\  /    A nd           | Version:  9
     \\/     M anipulation  |
\*---------------------------------------------------------------------------*/
FoamFile
{
    format      ascii;
    class       volScalarField;
    location    "0";
    object      yPlus;
}
// * * * * * * * * * * * * * * * * * * * * * * * * * * * * * * * * * * * * * //

dimensions      [0 0 0 0 0 0 0];

internalField   uniform 0;

boundaryField
{
    FrontandBack
    {
        type            empty;
    }
    Inlet
    {
        type            calculated;
        value           uniform 0;
    }
    Aerofoil
    {
        type            calculated;
        value           nonuniform List<scalar> 
1567
(
2.90769
2.91126
2.91516
2.9194
2.92383
2.92809
2.93207
2.93652
2.94144
2.94614
2.95076
2.95514
2.95992
2.96435
2.96837
2.97235
2.97558
2.97856
2.98083
2.98214
2.98239
2.98194
2.9799
2.97668
2.97176
2.96455
2.95522
2.94391
2.92962
2.91305
2.89362
2.87078
2.84555
2.81824
2.78907
2.75877
2.72906
2.70152
2.67943
2.66564
2.65931
2.65736
2.70413
2.84183
2.97712
2.90626
2.76089
2.66913
2.6206
2.5985
2.59278
2.59742
2.60883
2.62404
2.63801
2.65264
2.67211
2.69703
2.72605
2.7577
2.7903
2.82216
2.85233
2.87991
2.90442
2.92503
2.94269
2.95669
2.96751
2.97492
2.97956
2.98191
2.98163
2.97908
2.97529
2.9697
2.96286
2.95493
2.94588
2.93642
2.9265
2.91611
2.90548
2.89537
2.88467
2.8741
2.86406
2.85364
2.84387
2.83413
2.82513
2.81655
2.80771
2.79974
2.79182
2.78482
2.77731
2.77057
2.76579
2.86671
2.86812
2.86937
2.87067
2.87243
2.87427
2.87586
2.87758
2.87946
2.88135
2.88344
2.88538
2.88709
2.8892
2.89125
2.89352
2.8956
2.89775
2.89983
2.90212
2.90456
2.90666
2.90878
2.91086
2.91267
2.91481
2.91693
2.9186
2.92016
2.92156
2.92277
2.9239
2.92494
2.92603
2.92675
2.92766
2.92842
2.92949
2.93022
2.93101
2.93225
2.93302
2.93337
2.93412
2.935
2.93581
2.93633
2.93687
2.93763
2.93804
2.93842
2.93898
2.93952
2.93982
2.94028
2.94079
2.94026
2.94048
2.94165
2.94126
2.94117
2.94153
2.94213
2.94291
2.942
2.94229
2.94255
2.94184
2.9428
2.94301
2.94326
2.9425
2.94241
2.94331
2.9428
2.94268
2.94284
2.94295
2.94308
2.94317
2.94303
2.94295
2.94214
2.94221
2.94228
2.94233
2.94238
2.94242
2.94246
2.94248
2.9425
2.94225
2.94201
2.94201
2.94215
2.94128
2.94112
2.94169
2.94141
2.94153
2.94091
2.94087
2.941
2.93995
2.94022
2.94016
2.94028
2.93966
2.93959
2.93952
2.9392
2.93912
2.93905
2.93892
2.93834
2.93879
2.93844
2.93857
2.93771
2.93812
2.9375
2.93716
2.93781
2.93718
2.93707
2.93696
2.9366
2.93698
2.93636
2.93575
2.93638
2.93576
2.93564
2.93552
2.93539
2.93526
2.93514
2.93476
2.93437
2.93423
2.93439
2.93378
2.93366
2.93351
2.93338
2.93295
2.93331
2.93246
2.93257
2.93244
2.93229
2.9324
2.93231
2.93173
2.93152
2.93188
2.93097
2.93184
2.93101
2.93086
2.93071
2.93056
2.93042
2.93035
2.92945
2.92972
2.9299
2.92933
2.92886
2.92944
2.92889
2.92875
2.92894
2.92804
2.92828
2.92813
2.92834
2.9278
2.92763
2.92714
2.92738
2.92759
2.92704
2.92689
2.92675
2.92659
2.9268
2.92591
2.92615
2.92598
2.92584
2.92605
2.92554
2.92541
2.92524
2.92509
2.92494
2.92479
2.92464
2.92449
2.92474
2.92424
2.92408
2.92353
2.92375
2.92399
2.9235
2.92336
2.9236
2.9227
2.92292
2.92276
2.92326
2.92238
2.92233
2.92257
2.92212
2.92154
2.92216
2.92191
2.92178
2.92139
2.92124
2.92134
2.92121
2.92123
2.92059
2.9212
2.92031
2.92092
2.91977
2.92061
2.92044
2.92003
2.91988
2.92
2.91986
2.92016
2.91929
2.91987
2.91945
2.91886
2.91946
2.91928
2.91916
2.91876
2.91863
2.91872
2.91886
2.91917
2.91851
2.91835
2.91825
2.91764
2.91805
2.91837
2.91797
2.91782
2.9177
2.91804
2.91763
2.91751
2.91762
2.91752
2.91712
2.91723
2.91666
2.91726
2.91689
2.91649
2.91662
2.91722
2.91635
2.9165
2.91687
2.91598
2.9166
2.91624
2.91586
2.91675
2.91637
2.91601
2.91587
2.91601
2.91589
2.91578
2.91614
2.91528
2.91592
2.91553
2.91492
2.91556
2.9152
2.91507
2.91521
2.91534
2.91524
2.91561
2.91526
2.91516
2.91503
2.91493
2.91482
2.91469
2.91459
2.91499
2.91465
2.91477
2.91469
2.9138
2.91418
2.91432
2.91422
2.91458
2.91428
2.91418
2.91407
2.91395
2.91408
2.91425
2.91465
2.91358
2.91419
2.91414
2.91326
2.91389
2.9133
2.91395
2.91362
2.91353
2.91343
2.91334
2.91346
2.91416
2.91332
2.91397
2.91367
2.91379
2.91375
2.91337
2.91329
2.91318
2.91363
2.91304
2.91341
2.91332
2.91324
2.91316
2.91305
2.9135
2.91343
2.91363
2.91329
2.91319
2.91388
2.91361
2.91352
2.9129
2.91302
2.91316
2.91363
2.91333
2.91353
2.91264
2.91327
2.91302
2.91292
2.91309
2.913
2.91347
2.91288
2.91381
2.91329
2.91294
2.9131
2.9133
2.91321
2.9131
2.91329
2.91321
2.91344
2.91262
2.91271
2.91344
2.91341
2.91281
2.91346
2.91318
2.91335
2.91385
2.91302
2.91315
2.91304
2.91323
2.91315
2.91363
2.91361
2.9138
2.91349
2.91338
2.9136
2.91349
2.91343
2.91337
2.91406
2.91387
2.91354
2.91313
2.9135
2.91397
2.91375
2.9137
2.91361
2.91376
2.91397
2.91391
2.91358
2.91352
2.91449
2.91373
2.91412
2.91392
2.9135
2.91442
2.91419
2.91416
2.91405
2.91401
2.91418
2.91415
2.91404
2.91459
2.91378
2.9147
2.91447
2.91442
2.91436
2.9143
2.91447
2.91525
2.91449
2.91454
2.91448
2.91527
2.91507
2.91474
2.91493
2.91512
2.91507
2.91563
2.91538
2.91535
2.91527
2.91524
2.91518
2.91535
2.91557
2.91554
2.91545
2.91542
2.91559
2.91581
2.91632
2.91557
2.91566
2.91583
2.91583
2.91631
2.91615
2.9155
2.91642
2.91626
2.9162
2.91615
2.91634
2.91634
2.91683
2.91632
2.91699
2.91684
2.91621
2.9171
2.91659
2.91729
2.91711
2.91705
2.91702
2.91719
2.91721
2.9171
2.9177
2.91667
2.91759
2.91709
2.91778
2.91758
2.91758
2.91774
2.91796
2.91796
2.91788
2.91849
2.91828
2.9179
2.91884
2.91867
2.91864
2.91864
2.91856
2.91853
2.9185
2.91908
2.91855
2.91888
2.91888
2.91883
2.91941
2.91946
2.91971
2.91943
2.91938
2.9196
2.92021
2.91943
2.91976
2.91976
2.91971
2.91993
2.91993
2.91987
2.92009
2.92068
2.92051
2.92076
2.92048
2.92043
2.92093
2.92115
2.9209
2.92084
2.92109
2.92081
2.92078
2.92159
2.92171
2.92171
2.92168
2.9219
2.92187
2.92246
2.92233
2.9223
2.92252
2.92215
2.92285
2.92271
2.92269
2.92291
2.92316
2.9231
2.9231
2.92285
2.92339
2.92353
2.92351
2.92311
2.92408
2.9237
2.92367
2.92387
2.92412
2.92412
2.92443
2.92393
2.92428
2.92488
2.92435
2.92473
2.92507
2.92466
2.92464
2.92486
2.92571
2.92498
2.9253
2.92553
2.92553
2.92612
2.92534
2.9261
2.92594
2.92613
2.92641
2.92613
2.92611
2.92633
2.92633
2.92693
2.92617
2.92712
2.92664
2.92735
2.92722
2.92722
2.92741
2.92769
2.92741
2.92739
2.92764
2.92821
2.92751
2.92843
2.92773
2.9284
2.92853
2.92855
2.9285
2.92913
2.92837
2.92847
2.92847
2.92867
2.92955
2.92904
2.92939
2.92977
2.92959
2.92987
2.92984
2.92981
2.93006
2.93029
2.93089
2.93016
2.93023
2.93084
2.93071
2.93008
2.93081
2.93088
2.93091
2.93086
2.93113
2.93108
2.93108
2.93169
2.93153
2.93115
2.9315
2.93211
2.93196
2.93218
2.93243
2.93243
2.93238
2.93238
2.93235
2.93255
2.93321
2.93278
2.93301
2.93326
2.93321
2.93321
2.93318
2.93404
2.93353
2.9336
2.93383
2.93444
2.93343
2.9335
2.93408
2.93419
2.93444
2.93439
2.93459
2.93481
2.93481
2.93478
2.93469
2.93533
2.93519
2.93517
2.93467
2.93543
2.93535
2.93539
2.93541
2.93539
2.93542
2.93605
2.93532
2.93605
2.93534
2.93607
2.9353
2.93604
2.93597
2.93598
2.93591
2.93591
2.93595
2.93589
2.93586
2.93582
2.9358
2.93576
2.93568
2.93628
2.93617
2.9361
2.93606
2.93597
2.93594
2.93654
2.93579
2.93647
2.93569
2.93574
2.9364
2.9363
2.93631
2.93566
2.93638
2.93632
2.93634
2.93637
2.9364
2.93642
2.93705
2.93695
2.93687
2.93612
2.93671
2.9365
2.93632
2.9368
2.93582
2.93564
2.93636
2.93616
2.93781
2.93919
2.94122
2.94384
2.94656
2.95137
2.95566
2.95385
2.95407
2.95404
2.9543
2.95479
2.95527
2.95578
2.95602
2.95654
2.95702
2.95708
2.95726
2.95781
2.95827
2.95874
2.95898
2.95916
2.95955
2.95984
2.95999
2.96006
2.96034
2.96057
2.96077
2.96068
2.96055
2.96071
2.96076
2.96078
2.96053
2.96051
2.96045
2.96023
2.95985
2.95986
2.9597
2.95941
2.95939
2.9592
2.95914
2.95903
2.95882
2.95847
2.95807
2.9579
2.95773
2.95753
2.95742
2.95715
2.95702
2.95658
2.95636
2.95649
2.95611
2.95517
2.95553
2.95536
2.95542
2.95451
2.95435
2.95418
2.95402
2.9541
2.95394
2.95303
2.95335
2.95319
2.95253
2.95238
2.95221
2.95204
2.95187
2.95171
2.95154
2.95137
2.95124
2.95033
2.95115
2.95026
2.95057
2.94967
2.95024
2.94964
2.94948
2.94931
2.94916
2.94904
2.9487
2.94825
2.94827
2.94809
2.94826
2.94743
2.94726
2.94737
2.94696
2.9468
2.94665
2.9465
2.9466
2.94645
2.9463
2.94647
2.94592
2.94554
2.94514
2.94524
2.94509
2.94494
2.94515
2.94462
2.94415
2.94412
2.94434
2.94382
2.94367
2.94355
2.94366
2.94354
2.94315
2.94325
2.94339
2.94336
2.94262
2.94238
2.94263
2.94261
2.94211
2.942
2.94186
2.942
2.94188
2.94152
2.94138
2.94165
2.94116
2.9407
2.94116
2.94169
2.94122
2.94087
2.9405
2.94101
2.94044
2.94043
2.94031
2.94046
2.94049
2.94003
2.93994
2.93983
2.93974
2.93963
2.93954
2.93942
2.93958
2.93948
2.93914
2.93919
2.93901
2.93892
2.93857
2.93872
2.9389
2.9388
2.93869
2.93903
2.9386
2.93852
2.93841
2.93835
2.93827
2.93816
2.9381
2.93801
2.93791
2.93784
2.93776
2.93769
2.93758
2.93752
2.93743
2.9376
2.93753
2.93786
2.93748
2.9374
2.93733
2.93699
2.93693
2.9371
2.93728
2.93763
2.93724
2.93717
2.93711
2.93662
2.93702
2.93664
2.93682
2.93676
2.93711
2.93675
2.93651
2.93676
2.93685
2.93649
2.93642
2.93618
2.93685
2.93625
2.93618
2.93654
2.93601
2.93625
2.93636
2.93601
2.93576
2.93669
2.9361
2.93602
2.93622
2.93618
2.93654
2.93576
2.93626
2.93664
2.9356
2.93628
2.93593
2.93588
2.93584
2.93577
2.93572
2.93592
2.93611
2.93608
2.93647
2.93545
2.93611
2.93559
2.93627
2.9355
2.93615
2.93585
2.93579
2.93618
2.93567
2.9366
2.93583
2.93651
2.93593
2.93565
2.93559
2.93534
2.93603
2.93546
2.93565
2.93587
2.93602
2.93525
2.93619
2.93587
2.93538
2.93606
2.93574
2.9357
2.9359
2.93587
2.93582
2.93579
2.93549
2.9359
2.93514
2.93561
2.93627
2.93598
2.93549
2.93616
2.93584
2.9358
2.93624
2.93547
2.93569
2.9359
2.93633
2.93577
2.93527
2.93574
2.93643
2.93612
2.93607
2.93605
2.93647
2.93616
2.93568
2.93589
2.93585
2.93629
2.93621
2.93621
2.93615
2.93637
2.9361
2.93581
2.93623
2.93618
2.9364
2.93638
2.93634
2.93629
2.93627
2.93623
2.93618
2.93641
2.93639
2.93656
2.93626
2.93624
2.93645
2.93668
2.93663
2.93661
2.93657
2.93655
2.93627
2.93621
2.93646
2.93688
2.93659
2.93657
2.93655
2.9365
2.93671
2.93623
2.93642
2.93714
2.93685
2.93681
2.93681
2.93651
2.93647
2.93716
2.9369
2.93686
2.93636
2.93705
2.93677
2.93675
2.93696
2.93695
2.93713
2.93662
2.9371
2.93708
2.93752
2.93726
2.93674
2.93767
2.93743
2.93739
2.93809
2.9371
2.9373
2.93753
2.93798
2.93724
2.93744
2.93789
2.93764
2.93758
2.93782
2.93805
2.93777
2.93774
2.93773
2.93792
2.93741
2.93812
2.93785
2.93807
2.93804
2.93804
2.93798
2.93797
2.93794
2.93791
2.93862
2.93813
2.93882
2.93855
2.93829
2.93801
2.93821
2.93847
2.93841
2.9384
2.93886
2.93812
2.9388
2.93831
2.93926
2.93852
2.93919
2.93896
2.93893
2.93889
2.93888
2.93883
2.93907
2.93906
2.93926
2.93852
2.93945
2.93921
2.93918
2.9394
2.9389
2.93959
2.93934
2.93933
2.93928
2.93977
2.93901
2.93921
2.93969
2.93943
2.93942
2.93962
2.93987
2.93984
2.93983
2.93979
2.94027
2.93953
2.93998
2.94071
2.94046
2.9397
2.94014
2.94012
2.94037
2.94085
2.94012
2.94031
2.94029
2.94077
2.94052
2.94001
2.94046
2.94121
2.94071
2.94067
2.94069
2.94066
2.94088
2.94088
2.94086
2.94159
2.94162
2.9416
2.94158
2.94109
2.94178
2.94154
2.94154
2.94177
2.94177
2.94225
2.94202
2.94175
2.94175
2.94124
2.94169
2.94221
2.94195
2.94222
2.9422
2.9422
2.94218
2.94293
2.94296
2.9427
2.94269
2.94296
2.94244
2.94316
2.94294
2.94294
2.94294
2.94319
2.94344
2.94344
2.94371
2.94347
2.94372
2.94369
2.94368
2.94369
2.94381
2.94375
2.94381
2.94394
2.94387
2.94398
2.94457
2.9444
2.94444
2.94447
2.94454
2.9446
2.94467
2.94473
2.94479
2.94483
2.94537
2.94523
2.9453
2.94534
2.94491
2.94569
2.94553
2.9456
2.94567
2.94621
2.94554
2.94582
2.94587
2.94644
2.94628
2.94633
2.94641
2.94647
2.94654
2.94659
2.94667
2.94676
2.94681
2.94738
2.94673
2.94701
2.94758
2.94742
2.94748
2.94752
2.9476
2.94769
2.94776
2.94833
2.94769
2.94797
2.94851
2.94788
2.94867
2.94801
2.94881
2.94868
2.94874
2.94879
2.94885
2.9489
2.94902
2.94909
2.94964
2.94949
2.94957
2.94963
2.94968
2.94977
2.94983
2.94991
2.95
2.95052
2.94985
2.95066
2.95051
2.95009
2.95089
2.95074
2.95081
2.95089
2.95098
2.95105
2.95158
2.95095
2.95128
2.95185
2.95167
2.95173
2.95182
2.95187
2.95194
2.95201
2.9521
2.95219
2.95225
2.95234
2.95288
2.95267
2.95276
2.95285
2.95291
2.953
2.95307
2.95313
2.95322
2.95332
2.95338
2.95345
2.95401
2.95382
2.95388
2.95395
2.95402
2.95411
2.95464
2.95396
2.95431
2.95441
2.95448
2.95501
2.95435
2.95469
2.95522
2.95502
2.95509
2.95519
2.95525
2.95578
2.95513
2.95547
2.95599
2.95534
2.95614
2.9555
2.9563
2.95608
2.95616
2.95624
2.95633
2.95684
2.95617
2.95698
2.95633
2.95668
2.9572
2.95654
2.95735
2.95713
2.9572
2.95726
2.95734
2.95741
2.95791
2.95767
2.95731
2.95769
2.95818
2.95794
2.95801
2.95807
2.95814
2.9582
2.95868
2.95843
2.95849
2.95855
2.95861
2.95867
2.95872
2.95878
2.95883
2.95889
2.95894
2.959
2.95905
2.9591
2.95954
2.95926
2.9593
2.95934
2.95938
2.95904
2.95981
2.9595
2.95954
2.95957
2.95997
2.95965
2.95929
2.95967
2.96006
2.95971
2.95972
2.95972
2.95972
2.95971
2.95971
2.9597
2.95968
2.96001
2.95959
2.95955
2.9595
2.95912
2.95946
2.95972
2.95925
2.95949
2.95899
2.95859
2.95892
2.95884
2.95876
2.95897
2.95846
2.95837
2.95828
2.9582
)
;
    }
    Outlet
    {
        type            calculated;
        value           uniform 0;
    }
}


// ************************************************************************* //
